; Created by Sobtop (http://sobereva.com/soft/sobtop) Version 1.0(dev4) on 2024-06-13

[ atomtypes ]
; name   at.num      mass       charge   ptype     sigma (nm)    epsilon (kJ/mol)
c3           6    12.010736    0.000000    A      3.399670E-01    4.577296E-01
f            9    18.998403    0.000000    A      3.118146E-01    2.552240E-01

[ moleculetype ]
; name          nrexcl
tetrafluoromethane       3

[ atoms ]
;  Index   type   residue  resname   atom        cgnr     charge       mass
     1     c3         1      MOL     C1            1    0.6850523247 12.010736
     2     f          1      MOL     F2            2   -0.1712803003 18.998403
     3     f          1      MOL     F3            3   -0.1710616137 18.998403
     4     f          1      MOL     F4            4   -0.1714249547 18.998403
     5     f          1      MOL     F5            5   -0.1712854560 18.998403
 
[ bonds ]
; atom_i  atom_j  functype      r0 (nm)    k (kJ/mol/nm^2)
    1       2         1        0.134970     2.986539E+05     ; C1-F2, prebuilt c3-f
    1       3         1        0.134970     2.986539E+05     ; C1-F3, prebuilt c3-f
    1       4         1        0.134970     2.986539E+05     ; C1-F4, prebuilt c3-f
    1       5         1        0.134970     2.986539E+05     ; C1-F5, prebuilt c3-f
 
[ angles ]
; atom_i  atom_j  atom_k  functype    a0 (Deg.)  k (kJ/mol/rad^2)
    2       1       3         1       107.360      5.932912E+02     ; F2-C1-F3, prebuilt f-c3-f
    2       1       4         1       107.360      5.932912E+02     ; F2-C1-F4, prebuilt f-c3-f
    2       1       5         1       107.360      5.932912E+02     ; F2-C1-F5, prebuilt f-c3-f
    3       1       4         1       107.360      5.932912E+02     ; F3-C1-F4, prebuilt f-c3-f
    3       1       5         1       107.360      5.932912E+02     ; F3-C1-F5, prebuilt f-c3-f
    4       1       5         1       107.360      5.932912E+02     ; F4-C1-F5, prebuilt f-c3-f

; No pair needs to generate

; No improper needs to generate
