; Created by Sobtop (http://sobereva.com/soft/sobtop) Version 1.0(dev4) on 2024-06-13

[ atomtypes ]
; name   at.num      mass       charge   ptype     sigma (nm)    epsilon (kJ/mol)
c3           6    12.010736    0.000000    A      3.399670E-01    4.577296E-01
cl          17    35.452938    0.000000    A      3.470941E-01    1.108760E+00
hc           1     1.007941    0.000000    A      2.649533E-01    6.568880E-02
h1           1     1.007941    0.000000    A      2.471353E-01    6.568880E-02

[ moleculetype ]
; name          nrexcl
tetrachloropropane       3

[ atoms ]
;  Index   type   residue  resname   atom        cgnr     charge       mass
     1     c3         1      MOL     C1            1   -0.0134942296 12.010736
     2     c3         1      MOL     C2            2   -0.3009619336 12.010736
     3     c3         1      MOL     C3            3   -0.0478404517 12.010736
     4     cl         1      MOL     Cl4           4    0.0316655571 35.452938
     5     cl         1      MOL     Cl5           5    0.0253225367 35.452938
     6     cl         1      MOL     Cl6           6    0.0315505556 35.452938
     7     cl         1      MOL     Cl7           7   -0.1763392352 35.452938
     8     hc         1      MOL     H8            8    0.1146000501  1.007941
     9     hc         1      MOL     H9            9    0.1146000501  1.007941
    10     h1         1      MOL     H10          10    0.1104485502  1.007941
    11     h1         1      MOL     H11          11    0.1104485502  1.007941
 
[ bonds ]
; atom_i  atom_j  functype      r0 (nm)    k (kJ/mol/nm^2)
    1       2         1        0.153750     2.517931E+05     ; C1-C2, prebuilt c3-c3
    1       3         1        0.153750     2.517931E+05     ; C1-C3, prebuilt c3-c3
    1       8         1        0.109690     2.766461E+05     ; C1-H8, prebuilt c3-hc
    1       9         1        0.109690     2.766461E+05     ; C1-H9, prebuilt c3-hc
    2       4         1        0.180450     2.228398E+05     ; C2-Cl4, prebuilt c3-cl
    2       5         1        0.180450     2.228398E+05     ; C2-Cl5, prebuilt c3-cl
    2       6         1        0.180450     2.228398E+05     ; C2-Cl6, prebuilt c3-cl
    3       7         1        0.180450     2.228398E+05     ; C3-Cl7, prebuilt c3-cl
    3      10         1        0.109690     2.766461E+05     ; C3-H10, prebuilt c3-h1
    3      11         1        0.109690     2.766461E+05     ; C3-H11, prebuilt c3-h1
 
[ angles ]
; atom_i  atom_j  atom_k  functype    a0 (Deg.)  k (kJ/mol/rad^2)
    2       1       3         1       111.510      5.263472E+02     ; C2-C1-C3, prebuilt c3-c3-c3
    2       1       8         1       109.800      3.874384E+02     ; C2-C1-H8, prebuilt c3-c3-hc
    2       1       9         1       109.800      3.874384E+02     ; C2-C1-H9, prebuilt c3-c3-hc
    3       1       8         1       109.800      3.874384E+02     ; C3-C1-H8, prebuilt c3-c3-hc
    3       1       9         1       109.800      3.874384E+02     ; C3-C1-H9, prebuilt c3-c3-hc
    8       1       9         1       107.580      3.296992E+02     ; H8-C1-H9, prebuilt hc-c3-hc
    1       2       4         1       110.410      4.803232E+02     ; C1-C2-Cl4, prebuilt c3-c3-cl
    1       2       5         1       110.410      4.803232E+02     ; C1-C2-Cl5, prebuilt c3-c3-cl
    1       2       6         1       110.410      4.803232E+02     ; C1-C2-Cl6, prebuilt c3-c3-cl
    4       2       5         1       109.330      4.527088E+02     ; Cl4-C2-Cl5, prebuilt cl-c3-cl
    4       2       6         1       109.330      4.527088E+02     ; Cl4-C2-Cl6, prebuilt cl-c3-cl
    5       2       6         1       109.330      4.527088E+02     ; Cl5-C2-Cl6, prebuilt cl-c3-cl
    1       3       7         1       110.410      4.803232E+02     ; C1-C3-Cl7, prebuilt c3-c3-cl
    1       3      10         1       109.560      3.882752E+02     ; C1-C3-H10, prebuilt c3-c3-h1
    1       3      11         1       109.560      3.882752E+02     ; C1-C3-H11, prebuilt c3-c3-h1
    7       3      10         1       106.780      3.355568E+02     ; Cl7-C3-H10, prebuilt cl-c3-h1
    7       3      11         1       106.780      3.355568E+02     ; Cl7-C3-H11, prebuilt cl-c3-h1
   10       3      11         1       108.460      3.280256E+02     ; H10-C3-H11, prebuilt h1-c3-h1
 
[ dihedrals ] ; propers
; atom_i  atom_j  atom_k  atom_l  functype   d0 (Deg.)   k (kJ/mol/rad^2)    ; Case of functype=2
; atom_i  atom_j  atom_k  atom_l  functype  phase (Deg.)  kd (kJ/mol) pn     ; Case of functype=9
    2       1       3       7         9         0.000       12.5000    3     ; C2-C1-C3-Cl7, prebuilt X-c3-c3-X
    2       1       3      10         9         0.000       12.5000    3     ; C2-C1-C3-H10, prebuilt X-c3-c3-X
    2       1       3      11         9         0.000       12.5000    3     ; C2-C1-C3-H11, prebuilt X-c3-c3-X
    3       1       2       4         9         0.000       12.5000    3     ; C3-C1-C2-Cl4, prebuilt X-c3-c3-X
    3       1       2       5         9         0.000       12.5000    3     ; C3-C1-C2-Cl5, prebuilt X-c3-c3-X
    3       1       2       6         9         0.000       12.5000    3     ; C3-C1-C2-Cl6, prebuilt X-c3-c3-X
    4       2       1       8         9         0.000       0.00000    3     ; Cl4-C2-C1-H8, prebuilt hc-c3-c3-cl
    4       2       1       8         9         0.000       20.0460    1     ; Cl4-C2-C1-H8, prebuilt hc-c3-c3-cl
    4       2       1       9         9         0.000       0.00000    3     ; Cl4-C2-C1-H9, prebuilt hc-c3-c3-cl
    4       2       1       9         9         0.000       20.0460    1     ; Cl4-C2-C1-H9, prebuilt hc-c3-c3-cl
    5       2       1       8         9         0.000       0.00000    3     ; Cl5-C2-C1-H8, prebuilt hc-c3-c3-cl
    5       2       1       8         9         0.000       20.0460    1     ; Cl5-C2-C1-H8, prebuilt hc-c3-c3-cl
    5       2       1       9         9         0.000       0.00000    3     ; Cl5-C2-C1-H9, prebuilt hc-c3-c3-cl
    5       2       1       9         9         0.000       20.0460    1     ; Cl5-C2-C1-H9, prebuilt hc-c3-c3-cl
    6       2       1       8         9         0.000       0.00000    3     ; Cl6-C2-C1-H8, prebuilt hc-c3-c3-cl
    6       2       1       8         9         0.000       20.0460    1     ; Cl6-C2-C1-H8, prebuilt hc-c3-c3-cl
    6       2       1       9         9         0.000       0.00000    3     ; Cl6-C2-C1-H9, prebuilt hc-c3-c3-cl
    6       2       1       9         9         0.000       20.0460    1     ; Cl6-C2-C1-H9, prebuilt hc-c3-c3-cl
    7       3       1       8         9         0.000       0.00000    3     ; Cl7-C3-C1-H8, prebuilt hc-c3-c3-cl
    7       3       1       8         9         0.000       20.0460    1     ; Cl7-C3-C1-H8, prebuilt hc-c3-c3-cl
    7       3       1       9         9         0.000       0.00000    3     ; Cl7-C3-C1-H9, prebuilt hc-c3-c3-cl
    7       3       1       9         9         0.000       20.0460    1     ; Cl7-C3-C1-H9, prebuilt hc-c3-c3-cl
    8       1       3      10         9         0.000       12.5000    3     ; H8-C1-C3-H10, prebuilt X-c3-c3-X
    8       1       3      11         9         0.000       12.5000    3     ; H8-C1-C3-H11, prebuilt X-c3-c3-X
    9       1       3      10         9         0.000       12.5000    3     ; H9-C1-C3-H10, prebuilt X-c3-c3-X
    9       1       3      11         9         0.000       12.5000    3     ; H9-C1-C3-H11, prebuilt X-c3-c3-X

[ pairs ] ; Yielded based on rotatable dihedrals
; atom_i  atom_j  functype
    2       7         1     ; C2-C1-C3-Cl7
    2      10         1     ; C2-C1-C3-H10
    2      11         1     ; C2-C1-C3-H11
    3       4         1     ; C3-C1-C2-Cl4
    3       5         1     ; C3-C1-C2-Cl5
    3       6         1     ; C3-C1-C2-Cl6
    4       8         1     ; Cl4-C2-C1-H8
    4       9         1     ; Cl4-C2-C1-H9
    5       8         1     ; Cl5-C2-C1-H8
    5       9         1     ; Cl5-C2-C1-H9
    6       8         1     ; Cl6-C2-C1-H8
    6       9         1     ; Cl6-C2-C1-H9
    7       8         1     ; Cl7-C3-C1-H8
    7       9         1     ; Cl7-C3-C1-H9
    8      10         1     ; H8-C1-C3-H10
    8      11         1     ; H8-C1-C3-H11
    9      10         1     ; H9-C1-C3-H10
    9      11         1     ; H9-C1-C3-H11

; No improper needs to generate
