; Created by Sobtop (http://sobereva.com/soft/sobtop) Version 1.0(dev4) on 2024-06-13

[ atomtypes ]
; name   at.num      mass       charge   ptype     sigma (nm)    epsilon (kJ/mol)
c3           6    12.010736    0.000000    A      3.399670E-01    4.577296E-01
cl          17    35.452938    0.000000    A      3.470941E-01    1.108760E+00

[ moleculetype ]
; name          nrexcl
tetrachloromethane       3

[ atoms ]
;  Index   type   residue  resname   atom        cgnr     charge       mass
     1     c3         1      MOL     C1            1   -0.4768470891 12.010736
     2     cl         1      MOL     Cl2           2    0.1195681183 35.452938
     3     cl         1      MOL     Cl3           3    0.1183789164 35.452938
     4     cl         1      MOL     Cl4           4    0.1190935497 35.452938
     5     cl         1      MOL     Cl5           5    0.1198065047 35.452938
 
[ bonds ]
; atom_i  atom_j  functype      r0 (nm)    k (kJ/mol/nm^2)
    1       2         1        0.180450     2.228398E+05     ; C1-Cl2, prebuilt c3-cl
    1       3         1        0.180450     2.228398E+05     ; C1-Cl3, prebuilt c3-cl
    1       4         1        0.180450     2.228398E+05     ; C1-Cl4, prebuilt c3-cl
    1       5         1        0.180450     2.228398E+05     ; C1-Cl5, prebuilt c3-cl
 
[ angles ]
; atom_i  atom_j  atom_k  functype    a0 (Deg.)  k (kJ/mol/rad^2)
    2       1       3         1       109.330      4.527088E+02     ; Cl2-C1-Cl3, prebuilt cl-c3-cl
    2       1       4         1       109.330      4.527088E+02     ; Cl2-C1-Cl4, prebuilt cl-c3-cl
    2       1       5         1       109.330      4.527088E+02     ; Cl2-C1-Cl5, prebuilt cl-c3-cl
    3       1       4         1       109.330      4.527088E+02     ; Cl3-C1-Cl4, prebuilt cl-c3-cl
    3       1       5         1       109.330      4.527088E+02     ; Cl3-C1-Cl5, prebuilt cl-c3-cl
    4       1       5         1       109.330      4.527088E+02     ; Cl4-C1-Cl5, prebuilt cl-c3-cl

; No pair needs to generate

; No improper needs to generate
